Title="convergence analysis file of T3 element when h = 1"
Variables="X"   "Y"   "U"   "V"
Zone N=12 E=10 F=FEPOINT ET=TRIANGLE
10                   1         0.000676289         -0.00331558
8                   1         0.000534024         -0.00213206
6                   1          0.00040005         -0.00119991
4                   1          0.00026667        -0.000533327
2                   1         0.000133334        -0.000133333
0                   1                   0                   0
10                  -1        -0.000676289         -0.00337331
8                  -1        -0.000534024          -0.0021362
6                  -1         -0.00040005         -0.00120021
4                  -1         -0.00026667        -0.000533348
2                  -1        -0.000133334        -0.000133334
0                  -1                   0                   0
1                   2                   8
8                   7                   1
2                   3                   9
9                   8                   2
3                   4                  10
10                   9                   3
4                   5                  11
11                  10                   4
5                   6                  12
12                  11                   5
