Title="convergence analysis file of T3 element when h = 1/2"
Variables="X"   "Y"   "U"   "V"
Zone N=9 E=8 F=FEPOINT ET=TRIANGLE
0                   0                   0                   0
1                   0        -0.000201625        -0.000200922
2                   0        -0.000408588        -0.000830313
0                 0.5                   0                   0
1                 0.5         1.44498e-06        -0.000200161
2                 0.5         2.62583e-06        -0.000806183
0                   1                   0                   0
1                   1         0.000198736        -0.000199478
2                   1         0.000403337        -0.000782614
1                   2                   5
5                   4                   1
2                   3                   6
6                   5                   2
4                   5                   8
8                   7                   4
5                   6                   9
9                   8                   5
