Title="convergence analysis file of T3 element when h = 1/8"
Variables="X"   "Y"   "U"   "V"   "FX"   "FY" 
Zone N=369 E=640 F=FEPOINT ET=TRIANGLE
10                   1           0.0029782          -0.0143025                   1         1.06581e-14
9.75                   1          0.00283725          -0.0135369         7.10543e-15         2.66454e-15
9.5                   1          0.00273009          -0.0128347            -221.983            -207.092
9.25                   1          0.00264212          -0.0121651            -174.391            -79.7754
9                   1          0.00256382          -0.0115171            -372.596            -47.1412
8.75                   1          0.00248994          -0.0108872            -236.771            0.675294
8.5                   1          0.00241789          -0.0102747            -195.894            -48.7162
8.25                   1          0.00234654         -0.00967965            -140.065            -266.294
8                   1          0.00227542         -0.00910211            -181.664            -214.404
7.75                   1          0.00220435          -0.0085422            -391.668            -408.455
7.5                   1          0.00213328         -0.00800001            -332.425            -268.638
7.25                   1           0.0020622         -0.00747558            -519.344            -223.941
7                   1           0.0019911         -0.00696891            -372.616            -164.467
6.75                   1             0.00192         -0.00648001             -321.23            -202.599
6.5                   1          0.00184889          -0.0060089            -255.289            -409.313
6.25                   1          0.00177778         -0.00555556            -287.177            -346.959
6                   1          0.00170667            -0.00512            -487.869            -530.944
5.75                   1          0.00163556         -0.00470222            -419.715            -381.461
5.5                   1          0.00156445         -0.00430222            -598.122            -327.497
5.25                   1          0.00149333            -0.00392            -443.283            -259.156
5                   1          0.00142222         -0.00355556            -384.186            -288.821
4.75                   1          0.00135111         -0.00320889            -310.934            -487.469
4.5                   1             0.00128            -0.00288             -335.91            -417.448
4.25                   1          0.00120889         -0.00256889            -530.091            -594.166
4                   1          0.00113778         -0.00227556            -455.826            -437.816
3.75                   1          0.00106667              -0.002            -628.522            -377.386
3.5                   1         0.000995556         -0.00174222            -468.372            -302.978
3.25                   1         0.000924444         -0.00150222            -404.364            -326.976
3                   1         0.000853333            -0.00128            -326.601            -520.358
2.75                   1         0.000782222         -0.00107556            -347.465             -445.47
2.5                   1         0.000711111        -0.000888889            -537.935            -617.722
2.25                   1             0.00064            -0.00072            -460.359            -580.584
2                   1         0.000568889        -0.000568889            -213.925            -157.646
1.75                   1         0.000497778        -0.000435556            -335.376            -271.067
1.5                   1         0.000426667            -0.00032            -52.7556            -25.2222
1.25                   1         0.000355556        -0.000222222            -133.267            -98.9111
1                   1         0.000284444        -0.000142222             9.24445             17.6667
0.75                   1         0.000213333              -8e-05            -36.7778            -22.6889
0.5                   1         0.000142222        -3.55556e-05             13.2222             12.2222
0.25                   1         7.11111e-05        -8.88889e-06            -4.71111                -1.2
0                   1                   0                   0                  -1           0.0444444
10                0.75          0.00209486          -0.0143018         7.10543e-15         3.86358e-14
9.75                0.75          0.00207024          -0.0135366        -7.10543e-15         7.14984e-14
9.5                0.75          0.00202495          -0.0128357            -443.967             -421.63
9.25                0.75          0.00197348           -0.012166            -341.336             -255.99
9                0.75          0.00192031          -0.0115177            -323.914            -242.847
8.75                0.75          0.00186683          -0.0108875            -307.166            -230.002
8.5                0.75          0.00181338          -0.0102749            -290.901            -217.452
8.25                0.75          0.00175999         -0.00967971            -275.071            -205.221
8                0.75          0.00170664         -0.00910213            -259.671            -193.325
7.75                0.75          0.00165331         -0.00854221            -244.704            -181.776
7.5                0.75          0.00159998         -0.00800002            -230.176            -170.578
7.25                0.75          0.00154666         -0.00747558            -216.089            -159.734
7                0.75          0.00149333          -0.0069689            -202.445            -149.245
6.75                0.75             0.00144         -0.00648001            -189.245            -139.112
6.5                0.75          0.00138667          -0.0060089            -176.489            -129.334
6.25                0.75          0.00133333         -0.00555556            -164.178            -119.911
6                0.75             0.00128            -0.00512            -152.311            -110.845
5.75                0.75          0.00122667         -0.00470222            -140.889            -102.133
5.5                0.75          0.00117333         -0.00430222            -129.911            -93.7778
5.25                0.75             0.00112            -0.00392            -119.378            -85.7778
5                0.75          0.00106667         -0.00355556            -109.289            -78.1333
4.75                0.75          0.00101333         -0.00320889            -99.6444            -70.8444
4.5                0.75             0.00096            -0.00288            -90.4444            -63.9111
4.25                0.75         0.000906667         -0.00256889            -81.6889            -57.3333
4                0.75         0.000853333         -0.00227556            -73.3778            -51.1111
3.75                0.75              0.0008              -0.002            -65.5111            -45.2444
3.5                0.75         0.000746667         -0.00174222            -58.0889            -39.7333
3.25                0.75         0.000693333         -0.00150222            -51.1111            -34.5778
3                0.75             0.00064            -0.00128            -44.5778            -29.7778
2.75                0.75         0.000586667         -0.00107556            -38.4889            -25.3333
2.5                0.75         0.000533333        -0.000888889            -32.8444            -21.2444
2.25                0.75             0.00048            -0.00072            -27.6444            -17.5111
2                0.75         0.000426667        -0.000568889            -22.8889            -14.1333
1.75                0.75         0.000373333        -0.000435556            -18.5778            -11.1111
1.5                0.75             0.00032            -0.00032            -14.7111            -8.44444
1.25                0.75         0.000266667        -0.000222222            -11.2889            -6.13333
1                0.75         0.000213333        -0.000142222            -8.31111            -4.17778
0.75                0.75             0.00016              -8e-05            -5.77778            -2.57778
0.5                0.75         0.000106667        -3.55556e-05            -3.68889            -1.33333
0.25                0.75         5.33333e-05        -8.88889e-06            -2.04444                -1.2
0                0.75                   0                   0            -1.02222           0.0222222
10                 0.5          0.00135323          -0.0142627           -0.311111             7.71217
9.75                 0.5          0.00134643          -0.0135407          -0.0888889             7.71217
9.5                 0.5          0.00133163          -0.0128432            -288.835            -352.568
9.25                 0.5          0.00130701          -0.0121711            -204.685            -101.141
9                 0.5          0.00127655          -0.0115204            -615.887            -38.9494
8.75                 0.5          0.00124318          -0.0108888            -440.166            -71.4161
8.5                 0.5          0.00120848          -0.0102755            -417.239            -65.7232
8.25                 0.5          0.00117323         -0.00967995            -394.885            -60.0826
8                 0.5          0.00113777         -0.00910221            -373.093            -54.5908
7.75                 0.5          0.00110223         -0.00854223            -351.886            -49.2919
7.5                 0.5          0.00106668         -0.00800002             -331.28            -44.2048
7.25                 0.5          0.00103112         -0.00747557            -311.287             -39.337
7                 0.5         0.000995558          -0.0069689            -291.912            -34.6911
6.75                 0.5         0.000960001         -0.00648001            -273.157            -30.2679
6.5                 0.5         0.000924444         -0.00600889            -255.023            -26.0672
6.25                 0.5         0.000888889         -0.00555556            -237.512            -22.0891
6                 0.5         0.000853333            -0.00512            -220.623            -18.3334
5.75                 0.5         0.000817778         -0.00470222            -204.356               -14.8
5.5                 0.5         0.000782222         -0.00430222            -188.711            -11.4888
5.25                 0.5         0.000746667            -0.00392            -173.689            -8.39996
5                 0.5         0.000711111         -0.00355556            -159.289             -5.5333
4.75                 0.5         0.000675556         -0.00320889            -145.511            -2.88887
4.5                 0.5             0.00064            -0.00288            -132.356           -0.466654
4.25                 0.5         0.000604444         -0.00256889            -119.822             1.73334
4                 0.5         0.000568889         -0.00227556            -107.911             3.71112
3.75                 0.5         0.000533333              -0.002            -96.6222             5.46667
3.5                 0.5         0.000497778         -0.00174222            -85.9556                   7
3.25                 0.5         0.000462222         -0.00150222            -75.9111             8.31111
3                 0.5         0.000426667            -0.00128            -66.4889                 9.4
2.75                 0.5         0.000391111         -0.00107556            -57.6889             10.2667
2.5                 0.5         0.000355556        -0.000888889            -49.5111             10.9111
2.25                 0.5             0.00032            -0.00072            -41.9556             11.3333
2                 0.5         0.000284444        -0.000568889            -35.0222             11.5333
1.75                 0.5         0.000248889        -0.000435556            -28.7111             11.5111
1.5                 0.5         0.000213333            -0.00032            -23.0222             11.2667
1.25                 0.5         0.000177778        -0.000222222            -17.9556                10.8
1                 0.5         0.000142222        -0.000142222            -13.5111             10.1111
0.75                 0.5         0.000106667              -8e-05            -9.68889                 9.2
0.5                 0.5         7.11111e-05        -3.55556e-05            -6.48889             8.06667
0.25                 0.5         3.55556e-05        -8.88889e-06            -4.66667             2.55556
0                 0.5                   0                   0           -0.755556          -0.0666667
10                0.25         0.000666924          -0.0142336           0.0444444             8.57049
9.75                0.25          0.00066386          -0.0135397           -0.622222             8.57049
9.5                0.25          0.00065922          -0.0128494            -286.304            -351.563
9.25                0.25         0.000649939          -0.0121765            -195.241            -159.995
9                0.25         0.000636676          -0.0115237            -545.208            -123.519
8.75                0.25         0.000620998          -0.0108905            -283.733             -26.452
8.5                0.25         0.000604086          -0.0102762            -211.778             -88.925
8.25                0.25         0.000586616         -0.00968027            -234.762            -81.8426
8                0.25         0.000568923         -0.00910233            -219.862            -74.9399
7.75                0.25         0.000551153         -0.00854227            -205.285            -68.2587
7.5                0.25         0.000533363         -0.00800002            -191.125             -61.824
7.25                0.25         0.000515573         -0.00747557            -177.426            -55.6482
7                0.25         0.000497786          -0.0069689            -164.205            -49.7365
6.75                0.25         0.000480003            -0.00648            -151.471             -44.091
6.5                0.25         0.000462223         -0.00600889            -139.225            -38.7123
6.25                0.25         0.000444444         -0.00555556            -127.468            -33.6006
6                0.25         0.000426666            -0.00512            -116.201            -28.7558
5.75                0.25         0.000408888         -0.00470222            -105.422            -24.1779
5.5                0.25         0.000391111         -0.00430222            -95.1334            -19.8667
5.25                0.25         0.000373333            -0.00392            -85.3333            -15.8222
5                0.25         0.000355555         -0.00355556            -76.0222            -12.0444
4.75                0.25         0.000337778         -0.00320889               -67.2            -8.53331
4.5                0.25             0.00032            -0.00288            -58.8666            -5.28887
4.25                0.25         0.000302222         -0.00256889            -51.0222             -2.3111
4                0.25         0.000284444         -0.00227556            -43.6667            0.400008
3.75                0.25         0.000266667              -0.002               -36.8             2.84445
3.5                0.25         0.000248889         -0.00174222            -30.4222             5.02222
3.25                0.25         0.000231111         -0.00150222            -24.5333             6.93333
3                0.25         0.000213333            -0.00128            -19.1333             8.57778
2.75                0.25         0.000195556         -0.00107556            -14.2222             9.95556
2.5                0.25         0.000177778        -0.000888889                -9.8             11.0667
2.25                0.25             0.00016            -0.00072            -5.86667             11.9111
2                0.25         0.000142222        -0.000568889            -2.42222             12.4889
1.75                0.25         0.000124444        -0.000435556            0.533333                12.8
1.5                0.25         0.000106667            -0.00032                   3             12.8444
1.25                0.25         8.88889e-05        -0.000222222             4.97778             12.6222
1                0.25         7.11111e-05        -0.000142222             6.46667             12.1333
0.75                0.25         5.33333e-05              -8e-05             7.46667             11.3778
0.5                0.25         3.55556e-05        -3.55556e-05             7.97778                  10
0.25                0.25         1.77778e-05        -8.88889e-06             2.15556             4.75556
0                0.25                   0                   0           -0.488889           -0.155556
10                   0         2.26013e-06          -0.0142233             5.08889             9.07196
9.75                   0         1.90026e-07          -0.0135388             6.57778             9.07196
9.5                   0        -2.24397e-07          -0.0128519            -279.198             -350.31
9.25                   0        -1.93501e-08          -0.0121791            -192.714            -173.191
9                   0         1.82654e-07          -0.0115254            -542.589            -135.178
8.75                   0         2.46997e-07          -0.0108914            -340.996            -116.005
8.5                   0         2.20557e-07          -0.0102767            -294.778             -126.77
8.25                   0          1.6273e-07         -0.00968044            -188.258            -562.246
8                   0         1.06615e-07         -0.00910238             -241.56            -451.551
7.75                   0          6.3867e-08         -0.00854227            -225.581            -426.399
7.5                   0         3.52934e-08         -0.00800001            -210.053            -402.215
7.25                   0         1.78579e-08         -0.00747556            -195.015             -378.79
7                   0         8.01385e-09         -0.00696889            -180.491             -356.07
6.75                   0         2.88581e-09            -0.00648            -166.493            -334.048
6.5                   0          4.7564e-10         -0.00600889            -153.025            -312.726
6.25                   0        -4.80435e-10         -0.00555556            -140.091            -292.109
6                   0        -7.25476e-10            -0.00512             -127.69              -272.2
5.75                   0        -6.67091e-10         -0.00470222            -115.823            -253.001
5.5                   0        -5.11685e-10         -0.00430222            -104.489            -234.512
5.25                   0        -3.52612e-10            -0.00392             -93.689            -216.734
5                   0        -2.24146e-10         -0.00355556            -83.4222            -199.667
4.75                   0        -1.32515e-10         -0.00320889            -73.6889            -183.311
4.5                   0        -7.26018e-11            -0.00288            -64.4889            -167.667
4.25                   0         -3.6213e-11         -0.00256889            -55.8222            -152.733
4                   0         -1.5672e-11         -0.00227556            -47.6889            -138.511
3.75                   0        -5.01982e-12              -0.002            -40.0889                -125
3.5                   0        -1.09991e-13         -0.00174222            -33.0222              -112.2
3.25                   0         1.71747e-12         -0.00150222            -26.4889            -100.111
3                   0         2.05002e-12            -0.00128            -20.4889            -88.7333
2.75                   0         1.76699e-12         -0.00107556            -15.0222            -78.0667
2.5                   0         1.31346e-12        -0.000888889            -10.0889            -68.1111
2.25                   0         8.86865e-13            -0.00072            -5.68889            -58.8667
2                   0         5.54494e-13        -0.000568889            -1.82222            -50.3333
1.75                   0         3.22483e-13        -0.000435556             1.51111            -42.5111
1.5                   0         1.73266e-13            -0.00032             4.31111               -35.4
1.25                   0         8.40501e-14        -0.000222222             6.57778                 -29
1                   0         3.46702e-14        -0.000142222             8.31111            -23.3111
0.75                   0         9.97274e-15              -8e-05             9.51111            -18.3333
0.5                   0        -2.83562e-16        -3.55556e-05             9.91111            -4.44444
0.25                   0        -2.43438e-15        -8.88889e-06             5.11111            -6.55556
0                   0                   0                   0           -0.222222             6.68889
10               -0.25        -0.000662463          -0.0142333             7.46667            -3.86602
9.75               -0.25        -0.000663507          -0.0135405             8.97778            -3.86602
9.5               -0.25        -0.000659325          -0.0128508            -275.196            -359.555
9.25               -0.25        -0.000649724          -0.0121777            -190.581            -192.813
9               -0.25        -0.000636275          -0.0115245            -539.689            -149.207
8.75               -0.25        -0.000620591          -0.0108909            -352.562            -145.953
8.5               -0.25        -0.000603759          -0.0102764            -304.842            -148.441
8.25               -0.25        -0.000586388          -0.0096803            -276.256            -428.129
8               -0.25        -0.000568778          -0.0091023            -277.893            -335.321
7.75               -0.25        -0.000551067         -0.00854223            -704.517            -738.203
7.5               -0.25        -0.000533317         -0.00799999            -585.241            -554.462
7.25               -0.25         -0.00051555         -0.00747554            -551.777            -523.795
7               -0.25        -0.000497776         -0.00696888            -519.548            -493.972
6.75               -0.25            -0.00048         -0.00647999            -488.345            -464.981
6.5               -0.25        -0.000462223         -0.00600888            -458.115            -436.841
6.25               -0.25        -0.000444445         -0.00555555            -428.848            -409.569
6               -0.25        -0.000426668            -0.00512            -400.548            -383.176
5.75               -0.25         -0.00040889         -0.00470222             -373.22            -357.667
5.5               -0.25        -0.000391112         -0.00430222            -346.867            -333.045
5.25               -0.25        -0.000373334            -0.00392            -321.489            -309.312
5               -0.25        -0.000355556         -0.00355556            -297.089            -286.467
4.75               -0.25        -0.000337778         -0.00320889            -273.667            -264.512
4.5               -0.25            -0.00032            -0.00288            -251.223            -243.445
4.25               -0.25        -0.000302222         -0.00256889            -229.756            -223.267
4               -0.25        -0.000284444         -0.00227556            -209.267            -203.978
3.75               -0.25        -0.000266667              -0.002            -189.756            -185.578
3.5               -0.25        -0.000248889         -0.00174222            -171.222            -168.067
3.25               -0.25        -0.000231111         -0.00150222            -153.667            -151.444
3               -0.25        -0.000213333            -0.00128            -137.089            -135.711
2.75               -0.25        -0.000195556         -0.00107556            -121.489            -120.867
2.5               -0.25        -0.000177778        -0.000888889            -106.867            -106.911
2.25               -0.25            -0.00016            -0.00072            -93.2222            -93.8444
2               -0.25        -0.000142222        -0.000568889            -80.5556            -81.6667
1.75               -0.25        -0.000124444        -0.000435556            -68.8667            -70.3778
1.5               -0.25        -0.000106667            -0.00032            -58.1556            -59.9778
1.25               -0.25        -8.88889e-05        -0.000222222            -48.4222            -50.4667
1               -0.25        -7.11111e-05        -0.000142222            -39.6667            -41.8444
0.75               -0.25        -5.33333e-05              -8e-05            -31.8889            -32.0667
0.5               -0.25        -3.55556e-05        -3.55556e-05            -11.0222            -13.8667
0.25               -0.25        -1.77778e-05        -8.88889e-06            -14.1556            -13.1778
0               -0.25                   0                   0            -4.44444             13.2667
10                -0.5         -0.00134936          -0.0142627            -7.71111             -12.061
9.75                -0.5         -0.00134567          -0.0135436            -10.5556             -12.061
9.5                -0.5         -0.00133072          -0.0128462            -289.115            -366.278
9.25                -0.5         -0.00130642           -0.012173             -201.87             -210.56
9                -0.5         -0.00127629          -0.0115214             -547.22            -162.463
8.75                -0.5          -0.0012431          -0.0108892            -370.499            -175.009
8.5                -0.5         -0.00120847          -0.0102756            -317.241            -170.168
8.25                -0.5         -0.00117324         -0.00967992            -304.631             -446.42
8                -0.5         -0.00113778         -0.00910214            -298.044            -346.215
7.75                -0.5         -0.00110224         -0.00854216            -568.929            -687.323
7.5                -0.5         -0.00106668         -0.00799996            -467.587            -417.264
7.25                -0.5         -0.00103112         -0.00747553            -862.203            -336.997
7                -0.5        -0.000995562         -0.00696887            -670.461            -351.938
6.75                -0.5        -0.000960003         -0.00647999            -632.061            -329.261
6.5                -0.5        -0.000924446         -0.00600888            -594.772            -307.173
6.25                -0.5         -0.00088889         -0.00555555            -558.581            -285.769
6                -0.5        -0.000853334            -0.00512            -523.507            -265.092
5.75                -0.5        -0.000817778         -0.00470222            -489.569            -245.161
5.5                -0.5        -0.000782222         -0.00430222            -456.776            -225.982
5.25                -0.5        -0.000746667            -0.00392            -425.134            -207.558
5                -0.5        -0.000711111         -0.00355556            -394.645             -189.89
4.75                -0.5        -0.000675556         -0.00320889            -365.312            -172.978
4.5                -0.5            -0.00064            -0.00288            -337.134            -156.822
4.25                -0.5        -0.000604444         -0.00256889            -310.112            -141.422
4                -0.5        -0.000568889         -0.00227556            -284.245            -126.778
3.75                -0.5        -0.000533333              -0.002            -259.533            -112.889
3.5                -0.5        -0.000497778         -0.00174222            -235.978            -99.7555
3.25                -0.5        -0.000462222         -0.00150222            -213.578            -87.3777
3                -0.5        -0.000426667            -0.00128            -192.333            -75.7555
2.75                -0.5        -0.000391111         -0.00107556            -172.244            -64.8889
2.5                -0.5        -0.000355556        -0.000888889            -153.311            -54.7778
2.25                -0.5            -0.00032            -0.00072            -135.533            -45.4222
2                -0.5        -0.000284444        -0.000568889            -118.911            -36.8222
1.75                -0.5        -0.000248889        -0.000435556            -103.444            -28.9778
1.5                -0.5        -0.000213333            -0.00032            -89.1333            -21.8889
1.25                -0.5        -0.000177778        -0.000222222            -75.9778            -15.5556
1                -0.5        -0.000142222        -0.000142222            -63.9778            -9.97778
0.75                -0.5        -0.000106667              -8e-05            -49.4889            -15.5111
0.5                -0.5        -7.11111e-05        -3.55556e-05            -25.6889             5.82222
0.25                -0.5        -3.55556e-05        -8.88889e-06            -24.6444             5.37778
0                -0.5                   0                   0             42.2667             38.0898